9.0,25.0,1.08,1.09,1.0,1.01,27200.0,-0.07000000000000006
9.0,24.0,1.06,1.07,1.04,1.07,33000.0,0.010000000000000009
9.0,23.0,1.05,1.09,1.05,1.07,17000.0,0.020000000000000018
9.0,22.0,1.07,1.09,1.07,1.07,1600.0,0.0
9.0,21.0,1.08,1.08,1.04,1.08,14300.0,0.0
9.0,18.0,1.07,1.07,1.04,1.04,300.0,-0.030000000000000027
9.0,17.0,1.02,1.08,1.02,1.07,1700.0,0.050000000000000044
9.0,16.0,1.09,1.1,1.05,1.05,10300.0,-0.040000000000000036
9.0,15.0,1.04,1.11,1.04,1.07,7400.0,0.030000000000000027
9.0,14.0,1.06,1.1,1.04,1.04,3700.0,-0.020000000000000018
9.0,11.0,1.06,1.08,1.05,1.06,8700.0,0.0
9.0,10.0,1.1,1.1,1.07,1.07,12800.0,-0.030000000000000027
9.0,9.0,1.06,1.11,1.05,1.07,3100.0,0.010000000000000009
9.0,8.0,1.1,1.1,1.05,1.06,3700.0,-0.040000000000000036
9.0,4.0,1.1,1.14,1.05,1.06,5200.0,-0.040000000000000036
9.0,3.0,1.12,1.15,1.07,1.1,11400.0,-0.020000000000000018
9.0,2.0,1.08,1.15,1.05,1.12,33200.0,0.040000000000000036
9.0,1.0,1.01,1.08,1.01,1.06,6300.0,0.050000000000000044
8.0,31.0,1.11,1.16,1.03,1.03,31900.0,-0.08000000000000007
8.0,28.0,1.12,1.14,1.08,1.09,12800.0,-0.030000000000000027
8.0,27.0,1.07,1.13,1.07,1.1,26000.0,0.030000000000000027
8.0,26.0,1.06,1.09,1.0,1.0,20000.0,-0.06000000000000005
8.0,25.0,0.97,1.03,0.97,1.0,43700.0,0.030000000000000027
8.0,24.0,1.02,1.03,0.91,1.01,72000.0,-0.010000000000000009
8.0,21.0,1.2,1.2,1.07,1.07,46900.0,-0.1299999999999999
8.0,20.0,1.22,1.23,1.17,1.2,11500.0,-0.020000000000000018
8.0,19.0,1.19,1.23,1.15,1.21,51900.0,0.020000000000000018
8.0,18.0,1.21,1.21,1.15,1.15,12000.0,-0.06000000000000005
8.0,17.0,1.16,1.22,1.14,1.18,46400.0,0.020000000000000018
8.0,14.0,1.19,1.2,1.13,1.14,22400.0,-0.050000000000000044
8.0,13.0,1.09,1.2,1.08,1.13,65100.0,0.039999999999999813
8.0,12.0,1.2,1.24,1.05,1.11,236900.0,-0.08999999999999986
8.0,11.0,1.08,1.14,1.08,1.1,30300.0,0.020000000000000018
8.0,10.0,1.01,1.1,1.01,1.09,9400.0,0.08000000000000007
8.0,7.0,1.06,1.07,1.02,1.02,14900.0,-0.040000000000000036
8.0,6.0,1.01,1.08,1.01,1.05,52500.0,0.040000000000000036
8.0,5.0,1.08,1.08,1.01,1.02,18100.0,-0.06000000000000005
8.0,4.0,1.02,1.08,1.02,1.08,25300.0,0.06000000000000005
8.0,3.0,1.03,1.07,1.02,1.02,15400.0,-0.010000000000000009
7.0,31.0,1.02,1.04,1.02,1.03,2800.0,0.010000000000000009
7.0,30.0,1.01,1.05,1.0,1.05,33100.0,0.040000000000000036
7.0,29.0,1.02,1.08,1.01,1.01,9900.0,-0.010000000000000009
7.0,28.0,1.05,1.05,1.01,1.02,24400.0,-0.030000000000000027
7.0,27.0,1.02,1.03,1.01,1.01,25500.0,-0.010000000000000009
7.0,24.0,1.02,1.17,1.01,1.04,139000.0,0.020000000000000018
7.0,23.0,1.07,1.07,1.02,1.02,5100.0,-0.050000000000000044
7.0,22.0,1.03,1.08,1.01,1.01,3500.0,-0.020000000000000018
7.0,21.0,1.05,1.08,1.0,1.0,27900.0,-0.050000000000000044
7.0,20.0,1.11,1.11,1.04,1.06,28500.0,-0.050000000000000044
7.0,17.0,1.02,1.09,1.02,1.09,14100.0,0.07000000000000006
7.0,16.0,1.04,1.07,1.03,1.04,20700.0,0.0
7.0,15.0,1.01,1.06,1.01,1.05,21600.0,0.040000000000000036
7.0,14.0,1.07,1.08,1.04,1.07,9400.0,0.0
7.0,13.0,1.09,1.1,1.06,1.09,16400.0,0.0
7.0,10.0,1.12,1.12,1.08,1.09,18100.0,-0.030000000000000027
7.0,9.0,1.0,1.09,1.0,1.07,64000.0,0.07000000000000006
7.0,8.0,1.0,1.05,0.96,0.99,91400.0,-0.010000000000000009
7.0,7.0,1.12,1.12,1.02,1.07,159400.0,-0.050000000000000044
7.0,6.0,1.23,1.23,1.13,1.14,79000.0,-0.09000000000000008
7.0,2.0,1.2,1.23,1.2,1.22,7200.0,0.020000000000000018
7.0,1.0,1.21,1.23,1.2,1.2,29300.0,-0.010000000000000009
6.0,30.0,1.2,1.22,1.2,1.21,38300.0,0.010000000000000009
6.0,29.0,1.26,1.27,1.2,1.2,44700.0,-0.06000000000000005
6.0,26.0,1.29,1.31,1.25,1.25,40100.0,-0.040000000000000036
6.0,25.0,1.3,1.34,1.3,1.32,15400.0,0.020000000000000018
6.0,24.0,1.27,1.34,1.26,1.32,48400.0,0.050000000000000044
6.0,23.0,1.26,1.3,1.26,1.3,13000.0,0.040000000000000036
6.0,22.0,1.26,1.34,1.26,1.28,25100.0,0.020000000000000018
6.0,19.0,1.28,1.34,1.25,1.27,35300.0,-0.010000000000000009
6.0,18.0,1.27,1.34,1.26,1.29,14200.0,0.020000000000000018
6.0,17.0,1.29,1.32,1.27,1.3,41100.0,0.010000000000000009
6.0,16.0,1.34,1.34,1.22,1.26,45000.0,-0.08000000000000007
6.0,15.0,1.35,1.36,1.31,1.31,42700.0,-0.040000000000000036
6.0,12.0,1.36,1.39,1.34,1.35,44400.0,-0.010000000000000009
6.0,11.0,1.32,1.38,1.32,1.38,87800.0,0.05999999999999983
6.0,10.0,1.3,1.38,1.25,1.31,129100.0,0.010000000000000009
6.0,9.0,1.24,1.35,1.24,1.33,192200.0,0.09000000000000008
6.0,8.0,1.2,1.25,1.19,1.24,72000.0,0.040000000000000036
6.0,5.0,1.23,1.23,1.17,1.21,25200.0,-0.020000000000000018
6.0,4.0,1.15,1.25,1.15,1.23,38800.0,0.08000000000000007
6.0,3.0,1.16,1.25,1.15,1.21,41600.0,0.050000000000000044
6.0,2.0,1.17,1.21,1.14,1.17,59200.0,0.0
6.0,1.0,1.24,1.24,1.17,1.17,20700.0,-0.07000000000000006
5.0,29.0,1.16,1.21,1.16,1.2,21800.0,0.040000000000000036
5.0,28.0,1.24,1.24,1.16,1.2,45300.0,-0.040000000000000036
5.0,27.0,1.21,1.22,1.16,1.2,43200.0,-0.010000000000000009
5.0,26.0,1.2,1.24,1.15,1.16,77500.0,-0.040000000000000036
5.0,22.0,1.27,1.3,1.2,1.21,148700.0,-0.06000000000000005
5.0,21.0,1.36,1.39,1.31,1.31,109200.0,-0.050000000000000044
5.0,20.0,1.37,1.39,1.34,1.35,12500.0,-0.020000000000000018
5.0,19.0,1.35,1.36,1.33,1.34,13500.0,-0.010000000000000009
5.0,18.0,1.36,1.37,1.33,1.33,14300.0,-0.030000000000000027
5.0,15.0,1.32,1.35,1.29,1.35,42900.0,0.030000000000000027
5.0,14.0,1.38,1.39,1.3,1.32,35800.0,-0.05999999999999983
5.0,13.0,1.34,1.39,1.3,1.35,47500.0,0.010000000000000009
5.0,12.0,1.35,1.4,1.29,1.35,72100.0,0.0
5.0,11.0,1.38,1.41,1.37,1.39,27100.0,0.010000000000000009
5.0,8.0,1.39,1.4,1.38,1.38,28700.0,-0.010000000000000009
5.0,7.0,1.38,1.4,1.38,1.38,28900.0,0.0
5.0,6.0,1.4,1.42,1.38,1.39,126000.0,-0.010000000000000009
5.0,5.0,1.45,1.45,1.4,1.4,56300.0,-0.050000000000000044
5.0,4.0,1.39,1.45,1.39,1.45,39700.0,0.06000000000000005
5.0,1.0,1.45,1.45,1.36,1.36,46400.0,-0.08999999999999986
4.0,30.0,1.4,1.43,1.4,1.4,45400.0,0.0
4.0,29.0,1.45,1.45,1.38,1.39,108900.0,-0.06000000000000005
4.0,28.0,1.36,1.49,1.36,1.48,151600.0,0.11999999999999988
4.0,27.0,1.35,1.44,1.3,1.38,216800.0,0.029999999999999805
4.0,24.0,1.3,1.35,1.29,1.35,129900.0,0.050000000000000044
4.0,23.0,1.26,1.3,1.24,1.3,71600.0,0.040000000000000036
4.0,22.0,1.2,1.32,1.2,1.23,184500.0,0.030000000000000027
4.0,21.0,1.24,1.24,1.2,1.22,31500.0,-0.020000000000000018
4.0,20.0,1.21,1.23,1.2,1.23,46100.0,0.020000000000000018
4.0,17.0,1.2,1.21,1.17,1.18,28800.0,-0.020000000000000018
4.0,16.0,1.21,1.23,1.16,1.19,67700.0,-0.020000000000000018
4.0,15.0,1.2,1.21,1.14,1.2,74200.0,0.0
4.0,14.0,1.19,1.23,1.18,1.19,31300.0,0.0
4.0,13.0,1.25,1.25,1.19,1.19,60300.0,-0.06000000000000005
4.0,10.0,1.27,1.27,1.2,1.22,50800.0,-0.050000000000000044
4.0,9.0,1.19,1.34,1.15,1.27,152800.0,0.08000000000000007
4.0,8.0,1.14,1.29,1.12,1.22,377100.0,0.08000000000000007
4.0,7.0,1.12,1.16,1.1,1.12,20600.0,0.0
4.0,6.0,1.13,1.18,1.03,1.11,83900.0,-0.019999999999999796
4.0,2.0,1.15,1.17,1.1,1.1,22500.0,-0.04999999999999982
4.0,1.0,1.15,1.18,1.12,1.14,49000.0,-0.010000000000000009
3.0,31.0,1.14,1.15,1.1,1.13,7300.0,-0.010000000000000009
3.0,30.0,1.15,1.16,1.1,1.14,23900.0,-0.010000000000000009
3.0,27.0,1.14,1.14,1.1,1.1,19900.0,-0.039999999999999813
3.0,26.0,1.14,1.16,1.1,1.16,38400.0,0.020000000000000018
3.0,25.0,1.04,1.14,1.0,1.12,166900.0,0.08000000000000007
3.0,24.0,1.16,1.19,0.99,1.0,363400.0,-0.15999999999999992
3.0,23.0,1.1,1.18,1.1,1.12,43200.0,0.020000000000000018
3.0,20.0,1.15,1.17,1.09,1.09,67700.0,-0.05999999999999983
3.0,19.0,1.14,1.16,1.12,1.15,21700.0,0.010000000000000009
3.0,18.0,1.15,1.16,1.15,1.16,16500.0,0.010000000000000009
3.0,17.0,1.12,1.17,1.12,1.14,22300.0,0.019999999999999796
3.0,16.0,1.14,1.16,1.13,1.13,28000.0,-0.010000000000000009
3.0,13.0,1.21,1.21,1.14,1.15,13800.0,-0.06000000000000005
3.0,12.0,1.12,1.17,1.12,1.15,30500.0,0.029999999999999805
3.0,11.0,1.13,1.2,1.13,1.16,32200.0,0.030000000000000027
3.0,10.0,1.16,1.22,1.13,1.13,57800.0,-0.030000000000000027
3.0,9.0,1.16,1.19,1.14,1.17,36200.0,0.010000000000000009
3.0,6.0,1.2,1.26,1.11,1.23,310500.0,0.030000000000000027
3.0,5.0,1.45,1.57,1.4,1.55,149800.0,0.10000000000000009
3.0,4.0,1.42,1.48,1.31,1.46,96900.0,0.040000000000000036
3.0,3.0,1.48,1.48,1.36,1.42,89200.0,-0.06000000000000005
3.0,2.0,1.28,1.51,1.26,1.42,530700.0,0.1399999999999999
2.0,27.0,1.19,1.27,1.17,1.26,54200.0,0.07000000000000006
2.0,26.0,1.22,1.22,1.17,1.2,11700.0,-0.020000000000000018
2.0,25.0,1.18,1.24,1.15,1.18,61900.0,0.0
2.0,24.0,1.21,1.25,1.17,1.17,35000.0,-0.040000000000000036
2.0,23.0,1.24,1.25,1.21,1.21,26600.0,-0.030000000000000027
2.0,20.0,1.24,1.24,1.18,1.22,33100.0,-0.020000000000000018
2.0,19.0,1.2,1.22,1.2,1.2,8000.0,0.0
2.0,18.0,1.26,1.26,1.2,1.21,28000.0,-0.050000000000000044
2.0,17.0,1.24,1.27,1.24,1.25,35300.0,0.010000000000000009
2.0,13.0,1.17,1.22,1.17,1.22,44900.0,0.050000000000000044
2.0,12.0,1.15,1.19,1.15,1.18,36000.0,0.030000000000000027
2.0,11.0,1.1,1.15,1.1,1.15,22200.0,0.04999999999999982
2.0,10.0,1.16,1.2,1.14,1.15,24000.0,-0.010000000000000009
2.0,9.0,1.1,1.2,1.1,1.16,65700.0,0.05999999999999983
2.0,6.0,1.17,1.18,1.14,1.15,63300.0,-0.020000000000000018
2.0,5.0,1.23,1.23,1.15,1.17,38100.0,-0.06000000000000005
2.0,4.0,1.25,1.27,1.23,1.23,14900.0,-0.020000000000000018
2.0,3.0,1.17,1.29,1.17,1.23,25900.0,0.06000000000000005
2.0,2.0,1.14,1.18,1.12,1.16,61100.0,0.020000000000000018
1.0,30.0,1.18,1.18,1.14,1.14,32400.0,-0.040000000000000036
1.0,29.0,1.16,1.2,1.07,1.18,83300.0,0.020000000000000018
1.0,28.0,1.18,1.2,1.15,1.15,18800.0,-0.030000000000000027
1.0,27.0,1.2,1.23,1.2,1.21,8000.0,0.010000000000000009
1.0,26.0,1.19,1.23,1.18,1.23,11300.0,0.040000000000000036
1.0,23.0,1.17,1.19,1.15,1.18,30800.0,0.010000000000000009
1.0,22.0,1.18,1.22,1.17,1.17,30100.0,-0.010000000000000009
1.0,21.0,1.2,1.22,1.17,1.17,18100.0,-0.030000000000000027
1.0,20.0,1.23,1.23,1.18,1.2,27400.0,-0.030000000000000027
1.0,16.0,1.16,1.22,1.15,1.21,35600.0,0.050000000000000044
1.0,15.0,1.15,1.24,1.1,1.1,67200.0,-0.04999999999999982
1.0,14.0,1.2,1.26,1.1,1.17,111000.0,-0.030000000000000027
1.0,13.0,1.2,1.27,1.19,1.2,50900.0,0.0
1.0,12.0,1.2,1.24,1.18,1.19,20400.0,-0.010000000000000009
1.0,9.0,1.28,1.28,1.2,1.23,20300.0,-0.050000000000000044
1.0,8.0,1.26,1.33,1.22,1.26,47700.0,0.0
1.0,7.0,1.3,1.31,1.2,1.27,69500.0,-0.030000000000000027
1.0,6.0,1.25,1.34,1.25,1.27,31600.0,0.020000000000000018
1.0,5.0,1.21,1.34,1.16,1.24,113300.0,0.030000000000000027
1.0,2.0,1.31,1.31,1.2,1.21,126300.0,-0.10000000000000009
12.0,31.0,1.35,1.36,1.27,1.28,80200.0,-0.07000000000000006
12.0,30.0,1.33,1.41,1.25,1.35,155600.0,0.020000000000000018
12.0,29.0,1.38,1.41,1.32,1.38,157200.0,0.0
12.0,26.0,1.38,1.41,1.37,1.37,30100.0,-0.009999999999999787
12.0,24.0,1.36,1.38,1.36,1.38,41200.0,0.019999999999999796
12.0,23.0,1.4,1.4,1.36,1.36,42600.0,-0.039999999999999813
12.0,22.0,1.41,1.41,1.36,1.4,47500.0,-0.010000000000000009
12.0,19.0,1.45,1.48,1.38,1.38,119100.0,-0.07000000000000006
12.0,18.0,1.45,1.47,1.41,1.41,17700.0,-0.040000000000000036
12.0,17.0,1.41,1.47,1.36,1.41,46400.0,0.0
12.0,16.0,1.39,1.5,1.39,1.41,58700.0,0.020000000000000018
12.0,15.0,1.44,1.47,1.4,1.43,48000.0,-0.010000000000000009
12.0,12.0,1.46,1.54,1.42,1.46,72500.0,0.0
12.0,11.0,1.42,1.5,1.42,1.45,17200.0,0.030000000000000027
12.0,10.0,1.42,1.55,1.41,1.41,71600.0,-0.010000000000000009
12.0,9.0,1.48,1.57,1.41,1.43,36100.0,-0.050000000000000044
12.0,8.0,1.53,1.53,1.45,1.47,41400.0,-0.06000000000000005
12.0,5.0,1.45,1.56,1.4,1.52,56900.0,0.07000000000000006
12.0,4.0,1.52,1.56,1.45,1.45,68400.0,-0.07000000000000006
12.0,3.0,1.6,1.64,1.5,1.54,92800.0,-0.06000000000000005
12.0,2.0,1.63,1.64,1.54,1.6,86500.0,-0.029999999999999805
12.0,1.0,1.7,1.77,1.6,1.63,181500.0,-0.07000000000000006
11.0,28.0,1.43,1.62,1.4,1.62,196400.0,0.19000000000000017
11.0,26.0,1.42,1.42,1.4,1.4,14300.0,-0.020000000000000018
11.0,25.0,1.44,1.44,1.42,1.42,18700.0,-0.020000000000000018
11.0,24.0,1.46,1.46,1.4,1.42,36000.0,-0.040000000000000036
11.0,21.0,1.42,1.46,1.37,1.4,77000.0,-0.020000000000000018
11.0,20.0,1.44,1.49,1.41,1.41,56800.0,-0.030000000000000027
11.0,19.0,1.48,1.52,1.41,1.43,39300.0,-0.050000000000000044
11.0,18.0,1.46,1.51,1.42,1.43,69000.0,-0.030000000000000027
11.0,17.0,1.55,1.55,1.45,1.47,42400.0,-0.08000000000000007
11.0,14.0,1.5,1.55,1.48,1.51,41200.0,0.010000000000000009
11.0,13.0,1.53,1.53,1.48,1.48,46200.0,-0.050000000000000044
11.0,12.0,1.57,1.57,1.5,1.5,34600.0,-0.07000000000000006
11.0,11.0,1.49,1.54,1.48,1.54,42000.0,0.050000000000000044
11.0,10.0,1.54,1.59,1.47,1.5,93700.0,-0.040000000000000036
11.0,7.0,1.51,1.6,1.42,1.48,303900.0,-0.030000000000000027
11.0,6.0,1.78,1.88,1.7,1.86,115900.0,0.08000000000000007
11.0,5.0,1.75,1.75,1.68,1.7,55800.0,-0.050000000000000044
11.0,4.0,1.82,1.82,1.75,1.76,38700.0,-0.06000000000000005
11.0,3.0,1.73,1.82,1.73,1.82,36100.0,0.09000000000000008
10.0,31.0,1.66,1.78,1.66,1.75,13300.0,0.09000000000000008
10.0,30.0,1.72,1.77,1.68,1.73,17800.0,0.010000000000000009
10.0,29.0,1.73,1.8,1.72,1.74,21400.0,0.010000000000000009
10.0,28.0,1.71,1.74,1.7,1.73,23400.0,0.020000000000000018
10.0,27.0,1.71,1.74,1.66,1.7,25000.0,-0.010000000000000009
10.0,24.0,1.72,1.74,1.72,1.74,7700.0,0.020000000000000018
10.0,23.0,1.68,1.8,1.67,1.75,93300.0,0.07000000000000006
10.0,22.0,1.78,1.78,1.65,1.67,82500.0,-0.1100000000000001
10.0,21.0,1.67,1.81,1.67,1.76,94200.0,0.09000000000000008
10.0,20.0,1.59,1.73,1.59,1.63,65900.0,0.039999999999999813
10.0,17.0,1.46,1.64,1.46,1.57,58700.0,0.1100000000000001
10.0,16.0,1.4,1.44,1.36,1.43,66400.0,0.030000000000000027
10.0,15.0,1.47,1.47,1.43,1.46,40700.0,-0.010000000000000009
10.0,14.0,1.55,1.55,1.45,1.47,42200.0,-0.08000000000000007
10.0,13.0,1.5,1.55,1.47,1.53,31600.0,0.030000000000000027
10.0,10.0,1.54,1.54,1.45,1.5,115300.0,-0.040000000000000036
10.0,9.0,1.61,1.62,1.55,1.55,16000.0,-0.06000000000000005
10.0,8.0,1.66,1.67,1.61,1.61,28400.0,-0.04999999999999982
10.0,7.0,1.69,1.69,1.65,1.66,24500.0,-0.030000000000000027
10.0,6.0,1.64,1.68,1.6,1.66,36300.0,0.020000000000000018
10.0,3.0,1.69,1.69,1.65,1.67,26600.0,-0.020000000000000018
10.0,2.0,1.75,1.76,1.54,1.6,138900.0,-0.1499999999999999
10.0,1.0,1.78,1.79,1.75,1.76,60200.0,-0.020000000000000018
9.0,30.0,1.77,1.83,1.76,1.78,31100.0,0.010000000000000009
9.0,29.0,1.82,1.88,1.81,1.82,73400.0,0.0
9.0,26.0,1.83,1.85,1.83,1.85,26500.0,0.020000000000000018
9.0,25.0,1.83,1.88,1.82,1.84,61200.0,0.010000000000000009
9.0,24.0,1.8,1.89,1.79,1.83,59300.0,0.030000000000000027
9.0,23.0,1.92,1.92,1.8,1.82,164400.0,-0.09999999999999987
9.0,22.0,1.96,2.0,1.86,1.96,147800.0,0.0
9.0,19.0,1.95,1.98,1.95,1.96,103700.0,0.010000000000000009
9.0,18.0,2.03,2.03,1.95,1.95,85000.0,-0.07999999999999985
9.0,17.0,2.03,2.04,2.01,2.02,40900.0,-0.009999999999999787
9.0,16.0,2.04,2.07,2.04,2.04,41400.0,0.0
9.0,15.0,2.05,2.07,2.04,2.06,31800.0,0.010000000000000231
9.0,12.0,2.13,2.13,2.02,2.05,92400.0,-0.08000000000000007
9.0,11.0,2.11,2.11,2.05,2.08,49500.0,-0.029999999999999805
9.0,10.0,2.16,2.2,2.08,2.11,34000.0,-0.050000000000000266
9.0,9.0,2.1,2.22,2.1,2.17,32600.0,0.06999999999999984
9.0,8.0,2.08,2.16,2.06,2.11,97000.0,0.029999999999999805
9.0,5.0,2.23,2.25,2.11,2.14,128500.0,-0.08999999999999986
9.0,4.0,2.29,2.29,2.22,2.27,58700.0,-0.020000000000000018
9.0,3.0,2.34,2.35,2.24,2.24,117600.0,-0.09999999999999964
9.0,2.0,2.32,2.34,2.32,2.34,80900.0,0.020000000000000018
8.0,29.0,2.31,2.35,2.29,2.33,65600.0,0.020000000000000018
8.0,28.0,2.33,2.33,2.3,2.3,63500.0,-0.03000000000000025
8.0,27.0,2.25,2.34,2.25,2.33,117100.0,0.08000000000000007
8.0,26.0,2.28,2.35,2.23,2.24,228200.0,-0.03999999999999959
8.0,25.0,2.41,2.51,2.22,2.31,342200.0,-0.10000000000000009
8.0,22.0,2.48,2.64,2.25,2.5,847100.0,0.020000000000000018
8.0,21.0,2.87,2.97,2.8,2.8,421400.0,-0.07000000000000028
8.0,20.0,3.12,3.14,2.86,2.89,310200.0,-0.22999999999999998
8.0,19.0,2.99,3.22,2.99,3.1,504400.0,0.10999999999999988
8.0,18.0,2.94,3.03,2.94,2.96,124500.0,0.020000000000000018
8.0,15.0,2.96,3.04,2.9,2.94,64400.0,-0.020000000000000018
8.0,14.0,2.95,3.09,2.86,2.95,88100.0,0.0
8.0,13.0,3.05,3.12,2.91,2.91,241100.0,-0.13999999999999968
8.0,12.0,2.92,3.05,2.91,3.0,280900.0,0.08000000000000007
8.0,11.0,2.85,2.94,2.82,2.92,323200.0,0.06999999999999984
8.0,8.0,2.7,2.85,2.69,2.81,125900.0,0.10999999999999988
8.0,7.0,2.7,2.73,2.67,2.72,33100.0,0.020000000000000018
8.0,6.0,2.69,2.73,2.67,2.73,21500.0,0.040000000000000036
8.0,5.0,2.73,2.79,2.67,2.72,40200.0,-0.009999999999999787
8.0,4.0,2.66,2.75,2.64,2.75,48900.0,0.08999999999999986
8.0,1.0,2.69,2.73,2.64,2.67,52400.0,-0.020000000000000018
7.0,31.0,2.75,2.75,2.61,2.67,98500.0,-0.08000000000000007
7.0,30.0,2.83,2.84,2.75,2.79,59300.0,-0.040000000000000036
7.0,29.0,2.8,2.84,2.74,2.83,80800.0,0.03000000000000025
7.0,28.0,2.8,2.81,2.73,2.75,24200.0,-0.04999999999999982
7.0,25.0,2.75,2.81,2.72,2.76,23900.0,0.009999999999999787
7.0,24.0,2.82,2.83,2.75,2.78,35600.0,-0.040000000000000036
7.0,23.0,2.8,2.85,2.78,2.81,131500.0,0.010000000000000231
7.0,22.0,2.72,2.78,2.71,2.78,125600.0,0.05999999999999961
7.0,21.0,2.71,2.71,2.63,2.66,21700.0,-0.04999999999999982
7.0,18.0,2.61,2.72,2.6,2.69,44100.0,0.08000000000000007
7.0,17.0,2.61,2.68,2.61,2.61,25300.0,0.0
7.0,16.0,2.68,2.73,2.61,2.65,37200.0,-0.03000000000000025
7.0,15.0,2.73,2.73,2.67,2.67,16600.0,-0.06000000000000005
7.0,14.0,2.66,2.73,2.66,2.73,65200.0,0.06999999999999984
7.0,11.0,2.58,2.69,2.58,2.65,38600.0,0.06999999999999984
7.0,10.0,2.61,2.64,2.57,2.58,106500.0,-0.029999999999999805
7.0,9.0,2.64,2.68,2.61,2.67,105300.0,0.029999999999999805
7.0,8.0,2.78,2.81,2.64,2.68,159700.0,-0.09999999999999964
7.0,7.0,2.96,2.96,2.76,2.81,57600.0,-0.1499999999999999
7.0,3.0,2.88,2.99,2.88,2.93,66800.0,0.050000000000000266
7.0,2.0,2.91,3.08,2.84,2.9,604100.0,-0.010000000000000231
7.0,1.0,2.78,2.94,2.75,2.87,477600.0,0.0900000000000003
6.0,30.0,2.7,2.77,2.69,2.75,67700.0,0.04999999999999982
6.0,27.0,2.66,2.67,2.63,2.67,23500.0,0.009999999999999787
6.0,26.0,2.63,2.67,2.63,2.66,7900.0,0.03000000000000025
6.0,25.0,2.62,2.68,2.62,2.66,22500.0,0.040000000000000036
6.0,24.0,2.74,2.76,2.62,2.64,55300.0,-0.10000000000000009
6.0,23.0,2.69,2.76,2.68,2.69,24100.0,0.0
6.0,20.0,2.84,2.85,2.68,2.69,53300.0,-0.1499999999999999
6.0,19.0,2.82,2.84,2.72,2.84,35600.0,0.020000000000000018
6.0,18.0,2.82,2.85,2.77,2.82,186300.0,0.0
6.0,17.0,2.68,2.82,2.67,2.77,124000.0,0.08999999999999986
6.0,16.0,2.64,2.69,2.59,2.68,29000.0,0.040000000000000036
6.0,13.0,2.63,2.64,2.6,2.61,37100.0,-0.020000000000000018
6.0,12.0,2.66,2.68,2.62,2.62,50300.0,-0.040000000000000036
6.0,11.0,2.53,2.74,2.53,2.63,131300.0,0.10000000000000009
6.0,10.0,2.55,2.62,2.55,2.57,27600.0,0.020000000000000018
6.0,9.0,2.57,2.67,2.55,2.55,81000.0,-0.020000000000000018
6.0,6.0,2.59,2.65,2.59,2.6,69800.0,0.010000000000000231
6.0,5.0,2.62,2.65,2.55,2.6,101400.0,-0.020000000000000018
6.0,4.0,2.62,2.63,2.55,2.59,101700.0,-0.03000000000000025
6.0,3.0,2.67,2.72,2.63,2.63,60500.0,-0.040000000000000036
6.0,2.0,2.65,2.8,2.65,2.66,71300.0,0.010000000000000231
5.0,30.0,2.81,2.81,2.65,2.67,199600.0,-0.14000000000000012
5.0,29.0,2.83,2.85,2.76,2.76,105300.0,-0.07000000000000028
5.0,28.0,2.89,2.89,2.74,2.79,147400.0,-0.10000000000000009
5.0,27.0,2.8,2.98,2.8,2.83,163700.0,0.03000000000000025
5.0,23.0,3.28,3.3,2.75,2.83,798900.0,-0.44999999999999973
5.0,22.0,3.2,3.2,3.11,3.18,250400.0,-0.020000000000000018
5.0,21.0,2.96,3.16,2.96,3.13,305000.0,0.16999999999999993
5.0,20.0,2.9,3.01,2.86,2.94,176400.0,0.040000000000000036
5.0,19.0,2.66,2.91,2.66,2.87,144500.0,0.20999999999999996
5.0,16.0,2.63,2.77,2.63,2.72,78800.0,0.0900000000000003
5.0,15.0,2.8,2.86,2.64,2.64,156700.0,-0.1599999999999997
5.0,14.0,2.74,2.87,2.66,2.81,131300.0,0.06999999999999984
5.0,13.0,2.54,2.7,2.54,2.67,128400.0,0.1299999999999999
5.0,12.0,2.5,2.58,2.5,2.54,67300.0,0.040000000000000036
5.0,9.0,2.46,2.5,2.46,2.46,49600.0,0.0
5.0,8.0,2.48,2.58,2.46,2.47,83900.0,-0.009999999999999787
5.0,7.0,2.61,2.64,2.46,2.46,100100.0,-0.1499999999999999
5.0,6.0,2.58,2.85,2.58,2.64,124300.0,0.06000000000000005
5.0,5.0,2.57,2.59,2.55,2.56,84000.0,-0.009999999999999787
5.0,2.0,2.66,2.69,2.55,2.58,90500.0,-0.08000000000000007
5.0,1.0,2.62,2.72,2.6,2.63,53900.0,0.009999999999999787
4.0,30.0,2.58,2.68,2.51,2.6,41900.0,0.020000000000000018
4.0,29.0,2.56,2.8,2.5,2.6,128700.0,0.040000000000000036
4.0,28.0,2.65,2.73,2.5,2.51,151700.0,-0.14000000000000012
4.0,25.0,2.76,2.76,2.61,2.65,116300.0,-0.10999999999999988
4.0,24.0,2.96,2.96,2.72,2.8,89900.0,-0.16000000000000014
4.0,23.0,2.93,2.93,2.87,2.89,27300.0,-0.040000000000000036
4.0,22.0,2.93,2.93,2.85,2.92,64000.0,-0.010000000000000231
4.0,21.0,2.9,2.9,2.83,2.86,32600.0,-0.040000000000000036
4.0,17.0,2.74,2.87,2.7,2.87,70300.0,0.1299999999999999
4.0,16.0,2.69,2.84,2.67,2.81,74600.0,0.1200000000000001
4.0,15.0,2.72,2.73,2.6,2.68,113000.0,-0.040000000000000036
4.0,14.0,2.71,2.76,2.6,2.67,83400.0,-0.040000000000000036
4.0,11.0,2.82,2.83,2.65,2.69,108300.0,-0.1299999999999999
4.0,10.0,2.99,2.99,2.82,2.85,59500.0,-0.14000000000000012
4.0,9.0,2.83,2.95,2.75,2.93,191000.0,0.10000000000000009
4.0,8.0,2.68,2.89,2.65,2.83,145700.0,0.1499999999999999
4.0,7.0,2.92,3.0,2.62,2.68,434800.0,-0.23999999999999977
4.0,4.0,3.31,3.41,2.95,2.97,354000.0,-0.33999999999999986
4.0,3.0,3.36,3.54,3.2,3.2,290200.0,-0.1599999999999997
4.0,2.0,3.39,3.43,3.14,3.37,193000.0,-0.020000000000000018
4.0,1.0,3.29,3.49,3.29,3.39,248500.0,0.10000000000000009
3.0,31.0,3.17,3.43,3.11,3.31,320700.0,0.14000000000000012
3.0,28.0,3.11,3.2,3.11,3.16,126200.0,0.050000000000000266
3.0,27.0,3.04,3.13,2.95,3.1,142000.0,0.06000000000000005
3.0,26.0,3.27,3.28,3.01,3.04,250100.0,-0.22999999999999998
3.0,25.0,3.36,3.5,3.12,3.25,302300.0,-0.10999999999999988
3.0,24.0,3.6,3.64,3.28,3.35,314200.0,-0.25
3.0,21.0,3.13,3.57,3.1,3.57,867000.0,0.43999999999999995
3.0,20.0,3.11,3.17,3.07,3.12,66600.0,0.010000000000000231
3.0,19.0,3.16,3.33,3.02,3.17,240900.0,0.009999999999999787
3.0,18.0,3.04,3.25,3.0,3.2,240600.0,0.16000000000000014
3.0,17.0,2.82,3.15,2.81,3.09,393200.0,0.27
3.0,14.0,2.96,3.0,2.81,2.83,208800.0,-0.1299999999999999
3.0,13.0,3.09,3.18,2.93,2.96,431600.0,-0.1299999999999999
3.0,12.0,2.92,3.05,2.92,2.97,232800.0,0.050000000000000266
3.0,11.0,3.24,3.48,2.9,2.92,725500.0,-0.3200000000000003
3.0,10.0,3.46,3.5,3.21,3.32,285700.0,-0.14000000000000012
3.0,7.0,3.6,3.69,3.35,3.37,879600.0,-0.22999999999999998
3.0,6.0,4.31,4.31,3.51,3.65,4262800.0,-0.6599999999999997
3.0,5.0,2.86,3.38,2.81,3.26,1791200.0,0.3999999999999999
3.0,4.0,2.79,2.89,2.74,2.87,401900.0,0.08000000000000007
3.0,3.0,2.75,2.75,2.6,2.73,164200.0,-0.020000000000000018
2.0,28.0,2.65,2.86,2.62,2.72,384600.0,0.07000000000000028
2.0,27.0,2.54,2.65,2.5,2.63,171400.0,0.08999999999999986
2.0,26.0,2.54,2.58,2.46,2.52,139300.0,-0.020000000000000018
2.0,25.0,2.57,2.66,2.47,2.51,250300.0,-0.06000000000000005
2.0,24.0,2.59,2.67,2.57,2.57,166800.0,-0.020000000000000018
2.0,21.0,2.59,2.6,2.53,2.55,188800.0,-0.040000000000000036
2.0,20.0,2.55,2.62,2.49,2.61,182400.0,0.06000000000000005
2.0,19.0,2.37,2.58,2.3,2.49,395700.0,0.1200000000000001
2.0,18.0,2.37,2.43,2.34,2.37,226000.0,0.0
2.0,14.0,2.27,2.48,2.27,2.37,304900.0,0.10000000000000009
2.0,13.0,2.12,2.32,2.12,2.26,313300.0,0.13999999999999968
2.0,12.0,2.19,2.19,2.04,2.12,207700.0,-0.06999999999999984
2.0,11.0,2.16,2.25,2.1,2.13,201400.0,-0.03000000000000025
2.0,10.0,2.13,2.25,2.13,2.16,169300.0,0.03000000000000025
2.0,7.0,2.13,2.21,2.11,2.15,46500.0,0.020000000000000018
2.0,6.0,2.08,2.19,2.08,2.14,90900.0,0.06000000000000005
2.0,5.0,2.09,2.17,2.07,2.07,88400.0,-0.020000000000000018
2.0,4.0,2.03,2.29,2.02,2.16,185200.0,0.13000000000000034
2.0,3.0,2.31,2.31,2.04,2.09,287100.0,-0.2200000000000002
1.0,31.0,2.42,2.42,2.28,2.29,65300.0,-0.1299999999999999
1.0,30.0,2.32,2.4,2.23,2.35,104100.0,0.03000000000000025
1.0,29.0,2.38,2.43,2.2,2.31,138800.0,-0.06999999999999984
1.0,28.0,2.33,2.5,2.33,2.45,216300.0,0.1200000000000001
1.0,27.0,2.39,2.39,2.25,2.29,246800.0,-0.10000000000000009
1.0,24.0,2.63,2.64,2.35,2.42,492100.0,-0.20999999999999996
1.0,23.0,2.78,2.88,2.6,2.67,436600.0,-0.10999999999999988
1.0,22.0,2.7,3.05,2.69,2.89,434200.0,0.18999999999999995
1.0,21.0,2.78,2.83,2.62,2.76,214700.0,-0.020000000000000018
1.0,17.0,2.72,2.89,2.62,2.66,308100.0,-0.06000000000000005
1.0,16.0,2.7,2.74,2.55,2.65,228300.0,-0.050000000000000266
1.0,15.0,2.5,2.75,2.5,2.63,350800.0,0.1299999999999999
1.0,14.0,2.46,2.77,2.44,2.55,623600.0,0.08999999999999986
1.0,13.0,2.8,2.98,2.26,2.44,885400.0,-0.3599999999999999
1.0,10.0,2.9,2.92,2.75,2.78,438100.0,-0.1200000000000001
1.0,9.0,3.25,3.38,2.85,2.94,1156800.0,-0.31000000000000005
1.0,8.0,2.66,3.2,2.64,3.12,1956500.0,0.45999999999999996
1.0,7.0,2.65,2.73,2.56,2.64,182600.0,-0.009999999999999787
1.0,6.0,2.76,2.76,2.51,2.63,270400.0,-0.1299999999999999
1.0,3.0,2.8,2.92,2.65,2.66,438400.0,-0.13999999999999968
1.0,2.0,2.52,2.85,2.52,2.69,832000.0,0.16999999999999993
12.0,31.0,2.8,2.81,2.41,2.5,1846500.0,-0.2999999999999998
12.0,30.0,2.29,3.18,2.2,2.8,6147200.0,0.5099999999999998
12.0,27.0,2.25,2.31,2.1,2.2,409600.0,-0.04999999999999982
12.0,26.0,2.1,2.35,2.1,2.17,606600.0,0.06999999999999984
12.0,24.0,2.06,2.17,2.06,2.09,71200.0,0.029999999999999805
12.0,23.0,2.17,2.18,2.02,2.06,136900.0,-0.10999999999999988
12.0,20.0,2.06,2.2,2.01,2.12,229700.0,0.06000000000000005
12.0,19.0,2.11,2.11,2.06,2.1,87400.0,-0.009999999999999787
12.0,18.0,2.04,2.13,2.02,2.11,149400.0,0.06999999999999984
12.0,17.0,2.14,2.18,2.01,2.11,166800.0,-0.03000000000000025
12.0,16.0,2.15,2.25,2.12,2.14,160600.0,-0.009999999999999787
12.0,13.0,2.12,2.35,2.12,2.15,177000.0,0.029999999999999805
12.0,12.0,2.18,2.26,2.14,2.17,217800.0,-0.010000000000000231
12.0,11.0,2.12,2.47,2.05,2.16,812400.0,0.040000000000000036
12.0,10.0,2.07,2.15,1.96,2.15,272800.0,0.08000000000000007
12.0,9.0,2.06,2.15,2.0,2.07,479900.0,0.009999999999999787
12.0,6.0,1.84,2.25,1.8,2.24,1619600.0,0.40000000000000013
12.0,5.0,1.81,1.85,1.78,1.83,60800.0,0.020000000000000018
12.0,4.0,1.75,1.85,1.75,1.82,91700.0,0.07000000000000006
12.0,3.0,1.81,1.81,1.75,1.75,101900.0,-0.06000000000000005
12.0,2.0,1.77,1.88,1.77,1.78,196100.0,0.010000000000000009
11.0,29.0,1.79,1.87,1.77,1.81,92300.0,0.020000000000000018
11.0,27.0,1.71,1.87,1.71,1.83,307600.0,0.1200000000000001
11.0,26.0,1.8,1.8,1.7,1.73,219600.0,-0.07000000000000006
11.0,25.0,1.96,2.03,1.7,1.76,449000.0,-0.19999999999999996
11.0,22.0,2.02,2.09,1.97,1.97,106900.0,-0.050000000000000044
11.0,21.0,2.04,2.14,1.92,2.04,792800.0,0.0
11.0,20.0,2.0,2.08,1.94,1.97,170100.0,-0.030000000000000027
11.0,19.0,2.07,2.17,1.93,1.97,373800.0,-0.09999999999999987
11.0,18.0,2.18,2.35,2.0,2.06,694500.0,-0.1200000000000001
11.0,15.0,2.35,2.38,2.16,2.22,483600.0,-0.1299999999999999
11.0,14.0,2.27,2.53,2.14,2.32,1659500.0,0.04999999999999982
11.0,13.0,2.09,2.29,2.04,2.06,840900.0,-0.029999999999999805
11.0,12.0,2.13,2.31,2.05,2.09,818900.0,-0.040000000000000036
11.0,11.0,1.78,2.47,1.78,2.15,2263800.0,0.3699999999999999
11.0,8.0,1.94,1.94,1.78,1.78,229500.0,-0.15999999999999992
11.0,7.0,2.05,2.13,1.81,1.88,643400.0,-0.16999999999999993
11.0,6.0,1.72,2.15,1.67,2.14,2109600.0,0.42000000000000015
11.0,5.0,1.72,1.8,1.65,1.7,416900.0,-0.020000000000000018
11.0,4.0,1.9,1.9,1.74,1.75,359000.0,-0.1499999999999999
11.0,1.0,1.87,1.98,1.82,1.88,304700.0,0.009999999999999787
10.0,31.0,1.92,2.04,1.82,1.85,282900.0,-0.06999999999999984
10.0,30.0,1.95,2.06,1.9,1.92,273800.0,-0.030000000000000027
10.0,29.0,2.05,2.17,1.96,1.98,549300.0,-0.06999999999999984
10.0,28.0,1.86,2.06,1.81,1.98,890900.0,0.11999999999999988
10.0,25.0,1.92,2.2,1.84,1.85,927500.0,-0.06999999999999984
10.0,24.0,2.19,2.36,1.9,1.94,954600.0,-0.25
10.0,23.0,2.32,2.4,2.12,2.19,942600.0,-0.1299999999999999
10.0,22.0,2.32,2.61,2.26,2.45,2675300.0,0.13000000000000034
10.0,21.0,2.5,2.63,2.18,2.2,2472700.0,-0.2999999999999998
10.0,18.0,2.85,2.93,2.4,2.4,1292000.0,-0.4500000000000002
10.0,17.0,3.16,3.28,2.72,2.73,2677700.0,-0.43000000000000016
10.0,16.0,3.61,4.4,3.05,3.25,1.40354E7,-0.3599999999999999
10.0,15.0,1.39,3.12,1.39,3.11,6339900.0,1.72
10.0,14.0,1.39,1.4,1.37,1.37,15900.0,-0.019999999999999796
10.0,11.0,1.4,1.4,1.33,1.35,30100.0,-0.04999999999999982
10.0,10.0,1.39,1.48,1.39,1.42,70400.0,0.030000000000000027
10.0,9.0,1.5,1.5,1.4,1.46,69300.0,-0.040000000000000036
10.0,8.0,1.4,1.49,1.4,1.43,140700.0,0.030000000000000027
10.0,7.0,1.37,1.44,1.35,1.37,62500.0,0.0
10.0,4.0,1.35,1.41,1.29,1.35,23400.0,0.0
10.0,3.0,1.36,1.4,1.35,1.36,40700.0,0.0
10.0,2.0,1.35,1.4,1.32,1.33,9800.0,-0.020000000000000018
10.0,1.0,1.31,1.35,1.3,1.33,37000.0,0.020000000000000018
9.0,30.0,1.25,1.35,1.25,1.28,152600.0,0.030000000000000027
9.0,27.0,1.21,1.28,1.19,1.24,46900.0,0.030000000000000027
9.0,26.0,1.22,1.24,1.22,1.22,25900.0,0.0
9.0,25.0,1.19,1.24,1.19,1.22,16300.0,0.030000000000000027
9.0,24.0,1.19,1.2,1.19,1.19,8800.0,0.0
9.0,23.0,1.19,1.2,1.19,1.19,4000.0,0.0
9.0,20.0,1.19,1.23,1.18,1.2,14200.0,0.010000000000000009
9.0,19.0,1.21,1.22,1.19,1.19,25900.0,-0.020000000000000018
9.0,18.0,1.24,1.26,1.2,1.23,18200.0,-0.010000000000000009
9.0,17.0,1.21,1.25,1.21,1.24,5500.0,0.030000000000000027
9.0,16.0,1.23,1.26,1.21,1.22,10500.0,-0.010000000000000009
9.0,13.0,1.22,1.22,1.22,1.22,0.0,0.0
9.0,12.0,1.26,1.26,1.2,1.22,6500.0,-0.040000000000000036
9.0,11.0,1.21,1.24,1.2,1.2,34600.0,-0.010000000000000009
9.0,10.0,1.25,1.26,1.23,1.24,22300.0,-0.010000000000000009
9.0,9.0,1.24,1.28,1.22,1.28,15600.0,0.040000000000000036
9.0,6.0,1.24,1.27,1.23,1.24,14000.0,0.0
9.0,5.0,1.23,1.26,1.22,1.23,16200.0,0.0
9.0,4.0,1.22,1.26,1.21,1.24,6700.0,0.020000000000000018
9.0,3.0,1.23,1.28,1.23,1.27,6500.0,0.040000000000000036
8.0,30.0,1.26,1.28,1.26,1.28,8800.0,0.020000000000000018
8.0,29.0,1.23,1.23,1.21,1.23,10200.0,0.0
8.0,28.0,1.21,1.29,1.21,1.24,7600.0,0.030000000000000027
8.0,27.0,1.25,1.29,1.21,1.21,34400.0,-0.040000000000000036
8.0,26.0,1.3,1.3,1.25,1.27,10600.0,-0.030000000000000027
8.0,23.0,1.25,1.33,1.25,1.29,6500.0,0.040000000000000036
8.0,22.0,1.37,1.37,1.31,1.33,12300.0,-0.040000000000000036
8.0,21.0,1.21,1.49,1.21,1.34,29800.0,0.13000000000000012
8.0,20.0,1.21,1.25,1.2,1.22,34000.0,0.010000000000000009
8.0,19.0,1.34,1.39,1.2,1.21,97000.0,-0.13000000000000012
8.0,16.0,1.35,1.41,1.3,1.3,68000.0,-0.050000000000000044